
                                 *****************
                                 * O   R   C   A *
                                 *****************

                                            #,                                       
                                            ###                                      
                                            ####                                     
                                            #####                                    
                                            ######                                   
                                           ########,                                 
                                     ,,################,,,,,                         
                               ,,#################################,,                 
                          ,,##########################################,,             
                       ,#########################################, ''#####,          
                    ,#############################################,,   '####,        
                  ,##################################################,,,,####,       
                ,###########''''           ''''###############################       
              ,#####''   ,,,,##########,,,,          '''####'''          '####       
            ,##' ,,,,###########################,,,                        '##       
           ' ,,###''''                  '''############,,,                           
         ,,##''                                '''############,,,,        ,,,,,,###''
      ,#''                                            '''#######################'''  
     '                                                          ''''####''''         
             ,#######,   #######,   ,#######,      ##                                
            ,#'     '#,  ##    ##  ,#'     '#,    #''#        ,####,   ,####,        
            ##       ##  ##   ,#'  ##            #'  '#       #'       #'  '#        
            ##       ##  #######   ##           ,######,      #####,   #    #        
            '#,     ,#'  ##    ##  '#,     ,#' ,#      #,     #,   #   #,  ,#        
             '#######'   ##     ##  '#######'  #'      '#     '####' # '####'        



                #########################################################
                #                        -***-                          #
                #          Department of theory and spectroscopy        #
                #                                                       #
                #                      Frank Neese                      #
                #                                                       #
                #     Directorship, Architecture, Infrastructure        #
                #                    SHARK, DRIVERS                     #
                #        Core code/Algorithms in most modules           #
                #                                                       #
                #        Max Planck Institute fuer Kohlenforschung      #
                #                Kaiser Wilhelm Platz 1                 #
                #                 D-45470 Muelheim/Ruhr                 #
                #                      Germany                          #
                #                                                       #
                #                  All rights reserved                  #
                #                        -***-                          #
                #########################################################


                         Program Version 6.0.1  -  RELEASE   -


 With contributions from (in alphabetic order):
[Max-Planck-Institut fuer Kohlenforschung]                               
  Daniel Aravena         : Magnetic Suceptibility                        
  Michael Atanasov       : Ab Initio Ligand Field Theory (pilot matlab implementation)
  Alexander A. Auer      : GIAO ZORA, VPT2 properties, NMR spectrum      
  Ute Becker             : All parallelization in ORCA, NUMFREQ, NUMCALC 
  Giovanni Bistoni       : ED, misc. LED, open-shell LED, HFLD           
  Martin Brehm           : Molecular dynamics                            
  Dmytro Bykov           : pre 5.0 version of the SCF Hessian            
  Marcos Casanova-Páez   : Triplet and SCS-CIS(D). UHF-(DLPNO)-IP/EA/STEOM-CCSD. UHF-CVS-IP/STEOM-CCSD   
  Vijay G. Chilkuri      : MRCI spin determinant printing, contributions to CSF-ICE 
  Pauline Colinet        : FMM embedding                                 
  Dipayan Datta          : RHF DLPNO-CCSD density                        
  Achintya Kumar Dutta   : EOM-CC, STEOM-CC                              
  Nicolas Foglia         : Exact transition moments, OPA infrastructure, MCD improvements    
  Dmitry Ganyushin       : Spin-Orbit,Spin-Spin,Magnetic field MRCI      
  Miquel Garcia-Rates    : C-PCM and meta-GGA Hessian, CCSD/C-PCM, Gaussian charge scheme 
  Tiago L. C. Gouveia    : GS-ROHF, GS-ROCIS                             
  Yang Guo               : DLPNO-NEVPT2, F12-NEVPT2, CIM, IAO-localization        
  Andreas Hansen         : Spin unrestricted coupled pair/coupled cluster methods 
  Ingolf Harden          : AUTO-CI MPn and infrastructure                
  Benjamin Helmich-Paris : MC-RPA, TRAH-(SCF,CASSCF), AVAS, COSX integrals, SCF dyn. polar. 
  Lee Huntington         : MR-EOM, pCC                                   
  Robert Izsak           : Overlap fitted RIJCOSX, COSX-SCS-MP3, EOM     
  Riya Kayal             : Wick's Theorem for AUTO-CI, AUTO-CI UHF-CCSDT 
  Emily Kempfer          : AUTO-CI, RHF CISDT and CCSDT                  
  Christian Kollmar      : KDIIS, OOCD, Brueckner-CCSD(T), CCSD density, CASPT2, CASPT2-K, improved NEVPT2 
  Axel Koslowski         : Symmetry handling                             
  Simone Kossmann        : meta-GGA functionals, TD-DFT gradient, OOMP2, (MP2 Hessian; deprecated post 5.0) 
  Lucas Lang             : DCDCAS                                        
  Marvin Lechner         : AUTO-CI (C++ implementation), FIC-MRCC        
  Spencer Leger          : CASSCF response                               
  Dagmar Lenk            : GEPOL surface, SMD, ORCA-2-JSON               
  Dimitrios Liakos       : Extrapolation schemes; Compound Job, initial MDCI parallelization 
  Dimitrios Manganas     : Further ROCIS development; embedding schemes. LFT, Crystal Embedding 
  Dimitrios Pantazis     : SARC Basis sets                               
  Anastasios Papadopoulos: AUTO-CI, single reference methods and gradients 
  Taras Petrenko         : pre 6.0 DFT Hessian and TD-DFT gradient, (ASA, deprecated), ECA, 1-Electron XAS/XES, NRVS 
  Peter Pinski           : DLPNO-MP2, DLPNO-MP2 Gradient                 
  Christoph Reimann      : Effective Core Potentials                     
  Marius Retegan         : Local ZFS, SOC                                
  Christoph Riplinger    : Optimizer, TS searches, QM/MM, DLPNO-CCSD(T), (RO)-DLPNO pert. Triples 
  Michael Roemelt        : Original ROCIS implementation                 
  Masaaki Saitow         : Open-shell DLPNO-CCSD energy and density      
  Barbara Sandhoefer     : DKH picture change effects                    
  Kantharuban Sivalingam : CASSCF convergence/infrastructure, NEVPT2 and variants, FIC-MRCI 
  Bernardo de Souza      : ESD, SOC TD-DFT                               
  Georgi L. Stoychev     : AutoAux, RI-MP2 NMR, DLPNO-MP2 response, X2C  
  Van Anh Tran           : RI-MP2 g-tensors                              
  Willem Van den Heuvel  : Paramagnetic NMR                              
  Zikuan Wang            : NOTCH, Electric field optimization            
  Frank Wennmohs         : Technical directorship and infrastructure     
  Hang Xu                : AUTO-CI-Response properties                   
                                                                         
[FACCTs GmbH]                                                            
  Markus Bursch, Miquel Garcia-Rates, Christoph Riplinger, Bernardo de Souza, Georgi L. Stoychev 
                                                                 
  APM, Basis sets (HGBS, AHGBS, def-TZVP (Ac-Lr), def2-XVPD (La-Lu)), CI-OPT, improved COSX, DLPNO-Multilevel,           
  DOCKER, DRACO, updates on ESD, GOAT, IRC, LR-CPCM, MBIS, meta-GGA TD-DFT gradient, ML-optimized integration grids, 
  MM, NACMEs, nearIR, NEB, NEB-TS, NL-DFT gradient (VV10), 2- and 3-layer-ONIOM, interface openCOSMO-RS, QMMM,   
  Crystal-QMMM, SF, symmetry and pop. for TD-DFT, r2SCAN hybrids, SOLVATOR                                   
                                                                         
[Other institutions]                                                     
  V. Asgeirsson          : NEB                                           
  Christoph Bannwarth    : sTDA-DFT, sTD-DFT, PBEh-3c, B97-3c, D3        
  Sebastian Ehlert       : rSCAN, r2SCAN, r2SCAN-3c, D4, dhf basis sets  
  Marvin Friede          : D4 for Fr, Ra, Ac-Lr                          
  Lars Goerigk           : TD-DFT with DH, B97 family of functionals     
  Stefan Grimme          : VdW corrections, initial TS optimization, DFT functionals, gCP, sTDA/sTD-DF 
  Waldemar Hujo          : DFT-NL                                        
  H. Jonsson             : NEB                                           
  Holger Kruse           : gCP                                           
  Marcel Mueller         : wB97X-3c, vDZP basis set                      
  Hagen Neugebauer       : wr2SCAN                                       
  Tobias Risthaus        : range-separated hybrid DFT                    
  Lukas Wittmann         : regularized MP2, r2SCAN double-hybrids, wr2SCAN        
                                                                         
We gratefully acknowledge several colleagues who have allowed us to      
interface, adapt or use parts of their codes:                            
  Ed Valeev, F. Pavosevic, A. Kumar             : LibInt (2-el integral package), F12 methods 
  Garnet Chan, S. Sharma, J. Yang, R. Olivares  : DMRG                   
  Ulf Ekstrom                                   : XCFun DFT Library      
  Mihaly Kallay                                 : mrcc  (arbitrary order and MRCC methods)
  Frank Weinhold                                : gennbo (NPA and NBO analysis)           
  Simon Mueller                                 : openCOSMO-RS                            
  Christopher J. Cramer and Donald G. Truhlar   : smd solvation model                     
  S Lehtola, MJT Oliveira, MAL Marques          : LibXC Library                           
  Liviu Ungur et al                             : ANISO software                          


 Your calculation uses the libint2 library for the computation of 2-el integrals
 For citations please refer to: http://libint.valeyev.net

 Your ORCA version has been built with support for libXC version: 6.2.2
 For citations please refer to: https://libxc.gitlab.io

 This ORCA versions uses:
   CBLAS   interface :  Fast vector & matrix operations
   LAPACKE interface :  Fast linear algebra routines
   SCALAPACK package :  Parallel linear algebra routines
   Shared memory     :  Shared parallel matrices
   BLAS/LAPACK       :  OpenBLAS 0.3.27  USE64BITINT DYNAMIC_ARCH NO_AFFINITY Haswell SINGLE_THREADED
        Core in use  :  Haswell
   Copyright (c) 2011-2014, The OpenBLAS Project




***************************************
The coordinates will be read from file: frame_2090ps.pdb
***************************************


Your calculation utilizes the atom-pairwise dispersion correction
with the Becke-Johnson damping scheme (D3BJ)


XCFun DFT library Copyright 2009-2010 Ulf Ekstrom and contributors.
See http://admol.org/xcfun for more information.
This is free software; see the source code for copying conditions.
There is ABSOLUTELY NO WARRANTY; not even for MERCHANTABILITY or FITNESS FOR A PARTICULAR PURPOSE.
For details see the documentation.
Scientific users of this library should cite U. Ekstrom, L. Visscher, R. Bast, A. J. Thorvaldsen and K. Ruud;
J.Chem.Theor.Comp. 2010, DOI: 10.1021/ct100117s
XCFun Version 0.99 

================================================================================

----- Orbital basis set information -----
Your calculation utilizes the basis: def2-TZVP
   F. Weigend and R. Ahlrichs, Phys. Chem. Chem. Phys. 7, 3297 (2005).

----- AuxJ basis set information -----
Your calculation utilizes the auxiliary basis: def2/J
   F. Weigend, Phys. Chem. Chem. Phys. 8, 1057 (2006).

----- AuxC basis set information -----
Your calculation utilizes the auxiliary basis: def2-TZVP/C
  H-La, Hf-Rn : A. Hellweg, C. Hattig, S. Hofener and W. Klopper, Theor. Chem. Acc. 117, 587 (2007).
        Ce-Lu : J. Chmela and M. E. Harding, Mol. Phys. (2018).

----- AuxJK basis set information -----
Your calculation utilizes the auxiliary basis: def2/JK
   H-Ba, Hf-Rn: F. Weigend, J. Comput. Chem. 29, 167 (2008).

================================================================================
                                        WARNINGS
                       Please study these warnings very carefully!
================================================================================

INFO   : Checking CIS options ...

WARNING: CIS/ROCIS methods need fully converged wavefunctions
  ===> : Setting SCFConvForced true
         You can overwrite this default with %scf ConvForced false 


================================================================================
                                       INPUT FILE
================================================================================
NAME = ex_state.inp
|  1> !QM/MM CAM-B3LYP D3BJ RIJCOSX verytightSCF DEFGRID3 KEEPDENS ENGRAD
|  2> 
|  3> %basis
|  4> Basis "Def2-TZVP"
|  5> AuxJ "Def2/J"
|  6> AuxC "Def2-TZVP/C"
|  7> AuxJK "Def2/JK"
|  8> end
|  9> 
| 10> %tddft
| 11> TDA True
| 12> IRoot 4
| 13> nroots 6
| 14> maxdim 20
| 15> donto true
| 16> NTOThresh 1e-4
| 17> DOTRANS ALL
| 18> end
| 19> 
| 20> %qmmm
| 21> QMAtoms  {0:15} end
| 22> ActiveAtoms {0:15} end
| 23> ORCAFFFilename  "System.ORCAFF.prms"
| 24> end
| 25> 
| 26> *pdbfile 0 1 frame_2090ps.pdb
| 27> 
| 28>                          ****END OF INPUT****
================================================================================

------------------------------------------------------------------------------

                             **************************
                             *           QMMM         *
                             **************************


------------------------------------------------------------------------------




Multiscale model                       ... QM/MM
Coupling Scheme                        ... additive
Embedding Scheme                       ... electrostatic
PrintLevel                             ... 1
Charge alteration scheme               ... Charge shifting
Scaling factor for CS scheme           ... 0.06
Gradient projection scheme             ... Lever rule
Point charges in QM calc. from MM atoms... 6480
              from charge shift scheme ... 0
Printing trajectories, xyz and allxyz files:
        QMMMRegion                     ... YES
        activeRegion                   ... YES
        activeRegionExt                ... NO
        qmRegion                       ... YES
Parameter files:
        ORCA Forcefield Filename       ... System.ORCAFF.prms
        QM-LA bond distances Filename  ... ex_state.H_DIST.prms.tmp
Forcefield type                        ... AMBER
Size of different subsystems (in atoms):
Size of QMMM System                    ... 6496
Size of MM Subsystem                   ... 6480
Size of QM Subsystem                   ... 16
Number of link atoms                   ... 0
Size of QM Subsystem plus link atoms   ... 16
Size of region for optimizer           ... 31
        optimized atoms = activeRegion ... 16
        fixed atoms (distance cutoff)  ... 15 ( 0.0)
Composition of different systems (atoms start counting at 0):
QM Subsystem                           ...   0   1   2   3   4   5   6   7   8   9 
                                            10  11  12  13  14  15 
Active atoms                           ...   0   1   2   3   4   5   6   7   8   9 
                                            10  11  12  13  14  15 
Fixed atoms used in optimizer          ... 298 910 911 912 957 2173 2175 2891 3748 3750 
                                           4330 4332 5162 6121 6148 
Constrain bonds and angle of MM waters ... NO

                     *******************************
                     * Energy+Gradient Calculation *
                     *******************************

                    ************************************                      
                    *          QM/MM SP Energy         *                      
                    ************************************                      



----------------------------------------------------------------------------
                                     MM                                         
------------------------------------------------------------------------------


Force Field is read from file          ... System.ORCAFF.prms
Forcefield type                        ... AMBER
PrintLevel                             ... 1


Do energy and gradient calculation
Coulomb interaction settings:
   Dielectricity constant              ...        1.000
   1-4 scaling factor                  ...        0.833
   Force Shifting (Coulomb Interaction)... YES
       Coulomb CutOff                  ...       12.000 Ang.
   Force Switching (LJ Interaction)    ... YES
       LJ Inner CutOff                 ...       10.000 Ang.
       LJ Outer CutOff                 ...       12.000 Ang.
Do compute NB interaction for all atoms

-------------------------   ----------
MM Energy contributions:

---------------------------------- Bond Terms ----------------------------------
Bonds                         0.09709107

--------------------------------- Angle Terms ----------------------------------
Angles                        0.00000000

--------------------------- Angle Urey-Bradley Terms ---------------------------
Angles UB                     0.00000000

-------------------------------- Dihedral Terms --------------------------------
Dihedrals                     0.00000000

-------------------------------- Improper Terms --------------------------------
Impropers                     0.00000000

-------------------------- LJ and Coulomb interaction --------------------------

TOTAL TIME LJ + Coul           :....................         0.4313440000 seconds

LJ interaction                4.93411191
Coulomb interaction           -33.08947488
-------------------------   ----------

-------------------------   --------------------
FINAL SINGLE POINT ENERGY (MM)      -28.058271908956
-------------------------   --------------------


Printout of MM Cartesian gradient is suppressed (too many atoms).
Increase Printlevel to at least 2 to see Cartesian gradient.
Total MM SPGRAD time        ....       0.766 sec
------------------------------------------------------------------------------
                                     QM                                       
------------------------------------------------------------------------------
---------------------------------
CARTESIAN COORDINATES (ANGSTROEM)
---------------------------------
  C     21.410000   20.540000   20.820000
  C     20.730000   19.530000   21.430000
  C     20.820000   21.240000   19.770000
  H     22.410000   20.800000   21.140000
  C     19.430000   19.180000   21.010000
  H     21.180000   18.980000   22.240000
  C     19.530000   20.920000   19.340000
  C     18.850000   19.910000   19.950000
  H     17.850000   19.650000   19.620000
  H     19.080000   21.470000   18.530000
  N     18.750000   18.200000   21.630000
  H     19.200000   17.610000   22.310000
  H     17.860000   17.880000   21.260000
  N     21.530000   22.300000   19.130000
  O     22.660000   22.570000   19.520000
  O     21.000000   22.900000   18.210000

----------------------------
CARTESIAN COORDINATES (A.U.)
----------------------------
  NO LB      ZA    FRAG     MASS         X           Y           Z
   0 C     6.0000    0    12.011   40.459037   38.814975   39.344098
   1 C     6.0000    0    12.011   39.174023   36.906351   40.496831
   2 C     6.0000    0    12.011   39.344098   40.137783   37.359886
   3 H     1.0000    0     1.008   42.348763   39.306304   39.948810
   4 C     6.0000    0    12.011   36.717379   36.244947   39.703146
   5 H     1.0000    0     1.008   40.024400   35.867002   42.027509
   6 C     6.0000    0    12.011   36.906351   39.533071   36.547303
   7 C     6.0000    0    12.011   35.621338   37.624447   37.700036
   8 H     1.0000    0     1.008   33.731611   37.133119   37.076427
   9 H     1.0000    0     1.008   36.055975   40.572420   35.016625
  10 N     7.0000    0    14.007   35.432365   34.393016   40.874776
  11 H     1.0000    0     1.008   36.282742   33.278077   42.159790
  12 H     1.0000    0     1.008   33.750509   33.788303   40.175578
  13 N     7.0000    0    14.007   40.685804   42.140893   36.150461
  14 O     8.0000    0    15.999   42.821194   42.651119   36.887454
  15 O     8.0000    0    15.999   39.684249   43.274728   34.411913

--------------------------------
INTERNAL COORDINATES (ANGSTROEM)
--------------------------------
 C      0   0   0     0.000000000000     0.00000000     0.00000000
 C      1   0   0     1.361836994651     0.00000000     0.00000000
 C      1   2   0     1.393054198515   119.92134297     0.00000000
 H      1   2   3     1.081665382639   120.48960124   180.42162995
 C      2   1   3     1.410283659410   120.72648600     0.07223318
 H      2   1   3     1.077543502602   120.44648011   179.71937738
 C      3   1   2     1.396925194848   120.53192627     0.36635133
 C      7   3   1     1.361836994651   119.54572569   359.63501791
 H      8   7   3     1.084665847162   120.12239246   180.34196050
 H      7   3   1     1.077543502602   120.00774326   179.71675270
 N      5   2   1     1.344321390144   120.65343103   181.29373369
 H     11   5   2     1.006479011207   120.84881862   350.91878322
 H     11   5   2     1.015578652789   120.32851414   186.95734161
 N      3   1   2     1.427340183698   120.03057900   179.92857237
 O     14   3   1     1.225520297670   118.65805621     0.32426739
 O     14   3   1     1.219549097003   119.17274586   179.80314622

---------------------------
INTERNAL COORDINATES (A.U.)
---------------------------
 C      0   0   0     0.000000000000     0.00000000     0.00000000
 C      1   0   0     2.573498958933     0.00000000     0.00000000
 C      1   2   0     2.632490924902   119.92134297     0.00000000
 H      1   2   3     2.044051341731   120.48960124   180.42162995
 C      2   1   3     2.665049887430   120.72648600     0.07223318
 H      2   1   3     2.036262117304   120.44648011   179.71937738
 C      3   1   2     2.639806047837   120.53192627     0.36635133
 C      7   3   1     2.573498958933   119.54572569   359.63501791
 H      8   7   3     2.049721397954   120.12239246   180.34196050
 H      7   3   1     2.036262117304   120.00774326   179.71675270
 N      5   2   1     2.540399263345   120.65343103   181.29373369
 H     11   5   2     1.901969690721   120.84881862   350.91878322
 H     11   5   2     1.919165521227   120.32851414   186.95734161
 N      3   1   2     2.697282047131   120.03057900   179.92857237
 O     14   3   1     2.315897734157   118.65805621     0.32426739
 O     14   3   1     2.304613800206   119.17274586   179.80314622

---------------------
BASIS SET INFORMATION
---------------------
There are 4 groups of distinct atoms

 Group   1 Type C   : 11s6p2d1f contracted to 5s3p2d1f pattern {62111/411/11/1}
 Group   2 Type H   : 5s1p contracted to 3s1p pattern {311/1}
 Group   3 Type N   : 11s6p2d1f contracted to 5s3p2d1f pattern {62111/411/11/1}
 Group   4 Type O   : 11s6p2d1f contracted to 5s3p2d1f pattern {62111/411/11/1}

Atom   0C    basis set group =>   1
Atom   1C    basis set group =>   1
Atom   2C    basis set group =>   1
Atom   3H    basis set group =>   2
Atom   4C    basis set group =>   1
Atom   5H    basis set group =>   2
Atom   6C    basis set group =>   1
Atom   7C    basis set group =>   1
Atom   8H    basis set group =>   2
Atom   9H    basis set group =>   2
Atom  10N    basis set group =>   3
Atom  11H    basis set group =>   2
Atom  12H    basis set group =>   2
Atom  13N    basis set group =>   3
Atom  14O    basis set group =>   4
Atom  15O    basis set group =>   4
---------------------------------
AUXILIARY/J BASIS SET INFORMATION
---------------------------------
There are 4 groups of distinct atoms

 Group   1 Type C   : 12s5p4d2f1g contracted to 6s4p3d1f1g pattern {711111/2111/211/2/1}
 Group   2 Type H   : 5s2p1d contracted to 3s1p1d pattern {311/2/1}
 Group   3 Type N   : 12s5p4d2f1g contracted to 6s4p3d1f1g pattern {711111/2111/211/2/1}
 Group   4 Type O   : 12s5p4d2f1g contracted to 6s4p3d1f1g pattern {711111/2111/211/2/1}

Atom   0C    basis set group =>   1
Atom   1C    basis set group =>   1
Atom   2C    basis set group =>   1
Atom   3H    basis set group =>   2
Atom   4C    basis set group =>   1
Atom   5H    basis set group =>   2
Atom   6C    basis set group =>   1
Atom   7C    basis set group =>   1
Atom   8H    basis set group =>   2
Atom   9H    basis set group =>   2
Atom  10N    basis set group =>   3
Atom  11H    basis set group =>   2
Atom  12H    basis set group =>   2
Atom  13N    basis set group =>   3
Atom  14O    basis set group =>   4
Atom  15O    basis set group =>   4
---------------------------------
AUXILIARY/C BASIS SET INFORMATION
---------------------------------
There are 4 groups of distinct atoms

 Group   1 Type C   : 8s6p5d3f1g contracted to 8s6p4d3f1g pattern {11111111/111111/2111/111/1}
 Group   2 Type H   : 4s3p2d contracted to 4s2p1d pattern {1111/21/2}
 Group   3 Type N   : 8s6p5d3f1g contracted to 8s6p4d3f1g pattern {11111111/111111/2111/111/1}
 Group   4 Type O   : 8s6p5d3f1g contracted to 8s6p4d3f1g pattern {11111111/111111/2111/111/1}

Atom   0C    basis set group =>   1
Atom   1C    basis set group =>   1
Atom   2C    basis set group =>   1
Atom   3H    basis set group =>   2
Atom   4C    basis set group =>   1
Atom   5H    basis set group =>   2
Atom   6C    basis set group =>   1
Atom   7C    basis set group =>   1
Atom   8H    basis set group =>   2
Atom   9H    basis set group =>   2
Atom  10N    basis set group =>   3
Atom  11H    basis set group =>   2
Atom  12H    basis set group =>   2
Atom  13N    basis set group =>   3
Atom  14O    basis set group =>   4
Atom  15O    basis set group =>   4
----------------------------------
AUXILIARY/JK BASIS SET INFORMATION
----------------------------------
There are 4 groups of distinct atoms

 Group   1 Type C   : 14s10p6d2f1g contracted to 10s8p5d1f1g pattern {5111111111/31111111/21111/2/1}
 Group   2 Type H   : 4s2p2d contracted to 2s2p2d pattern {31/11/11}
 Group   3 Type N   : 14s10p6d2f1g contracted to 10s8p4d2f1g pattern {5111111111/31111111/3111/11/1}
 Group   4 Type O   : 14s10p6d2f1g contracted to 10s8p4d2f1g pattern {5111111111/31111111/3111/11/1}

Atom   0C    basis set group =>   1
Atom   1C    basis set group =>   1
Atom   2C    basis set group =>   1
Atom   3H    basis set group =>   2
Atom   4C    basis set group =>   1
Atom   5H    basis set group =>   2
Atom   6C    basis set group =>   1
Atom   7C    basis set group =>   1
Atom   8H    basis set group =>   2
Atom   9H    basis set group =>   2
Atom  10N    basis set group =>   3
Atom  11H    basis set group =>   2
Atom  12H    basis set group =>   2
Atom  13N    basis set group =>   3
Atom  14O    basis set group =>   4
Atom  15O    basis set group =>   4
------------------------------------------------------------------------------
                             ORCA STARTUP CALCULATIONS
                           -- RI-GTO INTEGRALS CHOSEN --
------------------------------------------------------------------------------
------------------------------------------------------------------------------
                   ___                                                        
                  /   \      - P O W E R E D   B Y -                         
                 /     \                                                     
                 |  |  |   _    _      __       _____    __    __             
                 |  |  |  | |  | |    /  \     |  _  \  |  |  /  |          
                  \  \/   | |  | |   /    \    | | | |  |  | /  /          
                 / \  \   | |__| |  /  /\  \   | |_| |  |  |/  /          
                |  |  |   |  __  | /  /__\  \  |    /   |      \           
                |  |  |   | |  | | |   __   |  |    \   |  |\   \          
                \     /   | |  | | |  |  |  |  | |\  \  |  | \   \       
                 \___/    |_|  |_| |__|  |__|  |_| \__\ |__|  \__/        
                                                                              
                      - O R C A' S   B I G   F R I E N D -                    
                                      &                                       
                       - I N T E G R A L  F E E D E R -                       
                                                                              
 v1 FN, 2020, v2 2021, v3 2022-2024                                           
------------------------------------------------------------------------------


----------------------
SHARK INTEGRAL PACKAGE
----------------------

Number of atoms                             ...     16
Number of basis functions                   ...    346
Number of shells                            ...    134
Maximum angular momentum                    ...      3
Integral batch strategy                     ... SHARK/LIBINT Hybrid
RI-J (if used) integral strategy            ... SPLIT-RIJ (Revised 2003 algorithm where possible)
Printlevel                                  ...      1
Contraction scheme used                     ... SEGMENTED contraction
Prescreening option                         ... SCHWARTZ
   Thresh                                   ... 1.000e-12
   Tcut                                     ... 1.000e-14
   Tpresel                                  ... 1.000e-14 
Coulomb Range Separation                    ... NOT USED
Exchange Range Separation                   ... Long Range
   Mu parameter                             ... 3.300e-01
   Scaling (regular/separated)              ... 1.900e-01 4.600e-01
Multipole approximations                    ... NOT USED
Finite Nucleus Model                        ... NOT USED
CABS basis                                  ... NOT available
Auxiliary Coulomb fitting basis             ... AVAILABLE
   # of basis functions in Aux-J            ...    556
   # of shells in Aux-J                     ...    180
   Maximum angular momentum in Aux-J        ...      4
Auxiliary J/K fitting basis                 ... AVAILABLE
   # of basis functions in Aux-JK           ...    866
   # of shells in Aux-JK                    ...    286
   Maximum angular momentum in Aux-JK       ...      4
Auxiliary Correlation fitting basis         ... AVAILABLE
   # of basis functions in Aux-C            ...    850
   # of shells in Aux-C                     ...    262
   Maximum angular momentum in Aux-C        ...      4
Auxiliary 'external' fitting basis          ... NOT available

Checking pre-screening integrals            ... done (  0.0 sec) Dimension = 134
Check shell pair data                       ... done (  0.0 sec)
Shell pair information
Shell pair cut-off parameter TPreSel        ...   1.0e-14
Total number of shell pairs                 ...      9045
Shell pairs after pre-screening             ...      8105
Total number of primitive shell pairs       ...     28204
Primitive shell pairs kept                  ...     18809
          la=0 lb=0:   2002 shell pairs
          la=1 lb=0:   2234 shell pairs
          la=1 lb=1:    636 shell pairs
          la=2 lb=0:   1208 shell pairs
          la=2 lb=1:    672 shell pairs
          la=2 lb=2:    193 shell pairs
          la=3 lb=0:    596 shell pairs
          la=3 lb=1:    332 shell pairs
          la=3 lb=2:    182 shell pairs
          la=3 lb=3:     50 shell pairs

Reading point charge file                   ... ok (6480 point charges)
Calculating one electron integrals          ... done (  3.3 sec)
Calculating RI/J V-Matrix + Cholesky decomp.... done (  0.7 sec)
Calculating RI/JK V-Matrix + Cholesky decomp... done (  0.8 sec)
Calculating RI/C V-Matrix + Cholesky decomp.... done (  0.8 sec)
Calculating Nuclear repulsion               ... (+Point charges) done (  0.2 sec) ENN=    498.598193124419 Eh

Diagonalization of the overlap matrix:
Smallest eigenvalue                        ... 8.572e-06
Time for diagonalization                   ...    0.027 sec
Threshold for overlap eigenvalues          ... 1.000e-07
Number of eigenvalues below threshold      ... 0
Time for construction of square roots      ...    0.356 sec
Total time needed                          ...    0.507 sec

-------------------
DFT GRID GENERATION
-------------------

General Integration Accuracy     IntAcc      ... 4.959
Radial Grid Type                 RadialGrid  ... OptM3 with GC (2021)
Angular Grid (max. ang.)         AngularGrid ... 6 (Lebedev-590)
Angular grid pruning method      GridPruning ... 4 (adaptive)
Weight generation scheme         WeightScheme... mBecke (2022)
Basis function cutoff            BFCut       ... 1.0000e-12
Integration weight cutoff        WCut        ... 1.0000e-14
Partially contracted basis set               ... off
Rotationally invariant grid construction     ... off
Angular grids for H and He will be reduced by one unit

Total number of grid points                  ...   195730
Total number of batches                      ...     3068
Average number of points per batch           ...       63
Average number of grid points per atom       ...    12233

--------------------
COSX GRID GENERATION
--------------------

GRIDX 1
-------
General Integration Accuracy     IntAcc      ... 4.020
Radial Grid Type                 RadialGrid  ... OptM3 with GC (2021)
Angular Grid (max. ang.)         AngularGrid ... 2 (Lebedev-110)
Angular grid pruning method      GridPruning ... 4 (adaptive)
Weight generation scheme         WeightScheme... mBecke (2022)
Basis function cutoff            BFCut       ... 1.0000e-12
Integration weight cutoff        WCut        ... 1.0000e-14
Partially contracted basis set               ... on
Rotationally invariant grid construction     ... off
Angular grids for H and He will be reduced by one unit

Total number of grid points                  ...    22628
Total number of batches                      ...      184
Average number of points per batch           ...      122
Average number of grid points per atom       ...     1414
UseSFitting                                  ... on

GRIDX 2
-------
General Integration Accuracy     IntAcc      ... 4.338
Radial Grid Type                 RadialGrid  ... OptM3 with GC (2021)
Angular Grid (max. ang.)         AngularGrid ... 3 (Lebedev-194)
Angular grid pruning method      GridPruning ... 4 (adaptive)
Weight generation scheme         WeightScheme... mBecke (2022)
Basis function cutoff            BFCut       ... 1.0000e-12
Integration weight cutoff        WCut        ... 1.0000e-14
Partially contracted basis set               ... on
Rotationally invariant grid construction     ... off
Angular grids for H and He will be reduced by one unit

Total number of grid points                  ...    49975
Total number of batches                      ...      399
Average number of points per batch           ...      125
Average number of grid points per atom       ...     3123
UseSFitting                                  ... on

GRIDX 3
-------
General Integration Accuracy     IntAcc      ... 4.871
Radial Grid Type                 RadialGrid  ... OptM3 with GC (2021)
Angular Grid (max. ang.)         AngularGrid ... 4 (Lebedev-302)
Angular grid pruning method      GridPruning ... 4 (adaptive)
Weight generation scheme         WeightScheme... mBecke (2022)
Basis function cutoff            BFCut       ... 1.0000e-12
Integration weight cutoff        WCut        ... 1.0000e-14
Partially contracted basis set               ... on
Rotationally invariant grid construction     ... off
Angular grids for H and He will be reduced by one unit

Total number of grid points                  ...    93064
Total number of batches                      ...      734
Average number of points per batch           ...      126
Average number of grid points per atom       ...     5816
UseSFitting                                  ... on
Initializing property integral containers    ... done (  1.6 sec)

SHARK setup successfully completed in  23.7 seconds

Maximum memory used throughout the entire STARTUP-calculation: 87.0 MB
-------------------------------------------------------------------------------
                                 ORCA GUESS
                   Start orbitals & Density for SCF / CASSCF
-------------------------------------------------------------------------------

------------
SCF SETTINGS
------------
Hamiltonian:
 Density Functional     Method          .... DFT(GTOs)
 Exchange Functional    Exchange        .... WB88
 Correlation Functional Correlation     .... LYP
 LDA part of GGA corr.  LDAOpt          .... VWN-5
 Gradients option       PostSCFGGA      .... off
 Hybrid DFT is turned on
   Fraction HF Exchange ScalHFX         ....  0.190000
   Scaling of DF-GGA-X  ScalDFX         ....  0.350000
   Scaling of DF-GGA-C  ScalDFC         ....  0.810000
   Scaling of DF-LDA-C  ScalLDAC        ....  1.000000
   Perturbative correction              ....  0.000000
 Long-range corrected/Screened/Range-Separated Hybrid DFT is turned on
   Amount of maximum screened exact exchange              ....  0.460000
   Range separation parameter mu (erf(mu*r12)/r12)        ....  0.330000
 RI-approximation to the Coulomb term is turned on
   Number of AuxJ basis functions       .... 556
   RIJ-COSX (HFX calculated with COS-X)).... on


General Settings:
 Integral files         IntName         .... ex_state
 Hartree-Fock type      HFTyp           .... RHF
 Total Charge           Charge          ....    0
 Multiplicity           Mult            ....    1
 Number of Electrons    NEL             ....   72
 Basis Dimension        Dim             ....  346
 Nuclear Repulsion      ENuc            ....    498.5981931244 Eh

Convergence Acceleration:
 AO-DIIS                CNVDIIS         .... on
   Start iteration      DIISMaxIt       ....    12
   Startup error        DIISStart       ....  0.200000
   # of expansion vecs  DIISMaxEq       ....     5
   Bias factor          DIISBfac        ....   1.050
   Max. coefficient     DIISMaxC        ....  10.000
 MO-DIIS                CNVKDIIS        .... off
 Trust-Rad. Augm. Hess. CNVTRAH         .... auto
   Auto Start mean grad. ratio tolernc. ....  1.125000
   Auto Start start iteration           ....    50
   Auto Start num. interpolation iter.  ....    10
   Max. Number of Micro iterations      ....    24
   Max. Number of Macro iterations      .... Maxiter - #DIIS iter
   Number of Davidson start vectors     ....     2
   Converg. threshold    (grad. norm)   ....   2.000e-06
   Grad. Scal. Fac. for Micro threshold ....   0.100
   Minimum threshold for Micro iter.    ....   1.000e-02
   NR start threshold (gradient norm)   ....   1.000e-04
   Initial trust radius                 ....   0.400
   Minimum AH scaling param. (alpha)    ....   1.000
   Maximum AH scaling param. (alpha)    .... 1000.000
   Quad. conv. algorithm                .... NR
   White noise on init. David. guess    .... on
   Maximum white noise                  ....   0.010
   Pseudo random numbers                .... off
   Inactive MOs                         .... canonical
   Orbital update algorithm             .... Taylor
   Preconditioner                       .... Diag
   Full preconditioner red. dimension   ....   250
 SOSCF                  CNVSOSCF        .... on
   Start iteration      SOSCFMaxIt      ....   150
   Startup grad/error   SOSCFStart      ....  0.003300
   Hessian update       SOSCFHessUp     .... L-BFGS
 Level Shifting         CNVShift        .... on
   Level shift para.    LevelShift      ....    0.2500
   Turn off err/grad.   ShiftErr        ....    0.0010
 Zerner damping         CNVZerner       .... off
 Static damping         CNVDamp         .... on
   Fraction old density DampFac         ....    0.7000
   Max. Damping (<1)    DampMax         ....    0.9800
   Min. Damping (>=0)   DampMin         ....    0.0000
   Turn off err/grad.   DampErr         ....    0.1000

SCF Procedure:
 Maximum # iterations   MaxIter         ....   125
 SCF integral mode      SCFMode         .... Direct
   Integral package                     .... SHARK and LIBINT hybrid scheme
 Reset frequency        DirectResetFreq ....    20
 Integral Threshold     Thresh          ....  1.000e-12 Eh
 Primitive CutOff       TCut            ....  1.000e-14 Eh

Convergence Tolerance:
 Convergence Check Mode ConvCheckMode   .... Total+1el-Energy
 Convergence forced     ConvForced      .... 1
 Energy Change          TolE            ....  1.000e-09 Eh
 1-El. energy change                    ....  1.000e-06 Eh
 Orbital Gradient       TolG            ....  2.000e-06
 Orbital Rotation angle TolX            ....  2.000e-06
 DIIS Error             TolErr          ....  1.000e-08

------------------------------
INITIAL GUESS: MODEL POTENTIAL
------------------------------
Loading Hartree-Fock densities                     ... done
Calculating cut-offs                               ... done
Initializing the effective Hamiltonian             ... done
Setting up the integral package (SHARK)            ... done
Starting the Coulomb interaction                   ... done (   1.3 sec)
Making the grid                                    ... done (   0.5 sec)
Mapping shells                                     ... done
Starting the XC term evaluation                    ... done (   0.7 sec)
  promolecular density results
     # of electrons  =     71.999529980
     EX              =    -61.889871551
     EC              =     -2.432681386
     EX+EC           =    -64.322552937
Transforming the Hamiltonian                       ... done (   0.0 sec)
Diagonalizing the Hamiltonian                      ... done (   0.0 sec)
Back transforming the eigenvectors                 ... done (   0.2 sec)
Now organizing SCF variables                       ... done
                      ------------------
                      INITIAL GUESS DONE (   3.3 sec)
                      ------------------
             **** ENERGY FILE WAS UPDATED (ex_state.en.tmp) ****
Finished Guess after  17.7 sec
Maximum memory used throughout the entire GUESS-calculation: 37.6 MB

-------------------------------------------------------------------------------------------
                                      ORCA LEAN-SCF
                              memory conserving SCF solver
-------------------------------------------------------------------------------------------

----------------------------------------D-I-I-S--------------------------------------------
Iteration    Energy (Eh)           Delta-E    RMSDP     MaxDP     DIISErr   Damp  Time(sec)
-------------------------------------------------------------------------------------------
               ***  Starting incremental Fock matrix formation  ***
    1    -491.8381542624991312     0.00e+00  1.74e-03  3.86e-02  2.10e-01  0.700  72.7
    2    -491.9694490865002194    -1.31e-01  1.43e-03  4.02e-02  1.05e-01  0.700  47.9
                               ***Turning on AO-DIIS***
    3    -492.0250094000941203    -5.56e-02  6.99e-04  1.44e-02  4.65e-02  0.700  40.9
    4    -492.0593412298549651    -3.43e-02  1.28e-03  2.93e-02  2.67e-02  0.000  52.0
    5    -492.1349889286775010    -7.56e-02  2.79e-04  1.12e-02  5.02e-03  0.000  49.3
                              *** Initializing SOSCF ***
---------------------------------------S-O-S-C-F--------------------------------------
Iteration    Energy (Eh)           Delta-E    RMSDP     MaxDP     MaxGrad    Time(sec)
--------------------------------------------------------------------------------------
    6    -492.1353415533625935    -3.53e-04  1.21e-04  3.35e-03  1.12e-03    46.4
               *** Restarting incremental Fock matrix formation ***
    7    -492.1354170793749176    -7.55e-05  9.73e-05  2.66e-03  1.51e-03    70.2
    8    -492.1354575749090259    -4.05e-05  9.39e-05  2.55e-03  5.13e-04    82.6
    9    -492.1354605431510549    -2.97e-06  2.26e-05  6.68e-04  7.19e-04    82.0
   10    -492.1354661554079826    -5.61e-06  1.03e-05  3.21e-04  1.04e-04    85.2
   11    -492.1354662825512492    -1.27e-07  2.84e-06  8.17e-05  3.33e-05    78.9
   12    -492.1354663496602484    -6.71e-08  1.26e-06  2.97e-05  1.77e-05    73.3
   13    -492.1354663554566855    -5.80e-09  5.24e-07  2.47e-05  9.26e-06    57.2
   14    -492.1354663567036027    -1.25e-09  4.51e-07  1.45e-05  8.47e-06    76.9
   15    -492.1354663570603520    -3.57e-10  1.53e-07  3.68e-06  3.09e-06    43.0
                 **** Energy Check signals convergence ****

               *****************************************************
               *                     SUCCESS                       *
               *           SCF CONVERGED AFTER  15 CYCLES          *
               *****************************************************

Recomputing exchange energy using gridx3       ... done (  132.104 sec)
Old exchange energy                            :    -17.607629644 Eh
New exchange energy                            :    -17.607633011 Eh
Exchange energy change after final integration :     -0.000003367 Eh
Total energy after final integration           :   -492.135469724 Eh
             **** ENERGY FILE WAS UPDATED (ex_state.en.tmp) ****

----------------
TOTAL SCF ENERGY
----------------

Total Energy       :       -492.13546972392459 Eh          -13391.68695 eV

Components:
Nuclear Repulsion  :        498.59819312441908 Eh           13567.54660 eV
Electronic Energy  :       -990.73365948147944 Eh          -26959.23346 eV
One Electron Energy:      -1657.73416302630153 Eh          -45109.23989 eV
Two Electron Energy:        667.00050354482210 Eh           18150.00643 eV

Virial components:
Potential Energy   :       -982.34224841477885 Eh          -26730.89155 eV
Kinetic Energy     :        490.20677869085432 Eh           13339.20460 eV
Virial Ratio       :          2.00393444382434

DFT components:
N(Alpha)           :       35.999994940733 electrons
N(Beta)            :       35.999994940733 electrons
N(Total)           :       71.999989881466 electrons
E(XC)              :      -48.049354007492 Eh       

---------------
SCF CONVERGENCE
---------------

  Last Energy change         ...    3.5675e-10  Tolerance :   1.0000e-09
  Last MAX-Density change    ...    3.6786e-06  Tolerance :   1.0000e-08
  Last RMS-Density change    ...    1.5261e-07  Tolerance :   1.0000e-09
  Last DIIS Error            ...    1.1214e-03  Tolerance :   1.0000e-08
  Last Orbital Gradient      ...    3.0852e-06  Tolerance :   2.0000e-06
  Last Orbital Rotation      ...    1.0802e-05  Tolerance :   2.0000e-06


----------------
ORBITAL ENERGIES
----------------

  NO   OCC          E(Eh)            E(eV) 
   0   2.0000     -19.221133      -523.0336 
   1   2.0000     -19.220554      -523.0179 
   2   2.0000     -14.625326      -397.9754 
   3   2.0000     -14.406056      -392.0087 
   4   2.0000     -10.310590      -280.5654 
   5   2.0000     -10.286219      -279.9023 
   6   2.0000     -10.263455      -279.2828 
   7   2.0000     -10.261692      -279.2348 
   8   2.0000     -10.249072      -278.8914 
   9   2.0000     -10.246673      -278.8262 
  10   2.0000      -1.312211       -35.7071 
  11   2.0000      -1.129013       -30.7220 
  12   2.0000      -1.025874       -27.9155 
  13   2.0000      -0.956077       -26.0162 
  14   2.0000      -0.870377       -23.6842 
  15   2.0000      -0.846508       -23.0347 
  16   2.0000      -0.761421       -20.7193 
  17   2.0000      -0.706739       -19.2313 
  18   2.0000      -0.668215       -18.1830 
  19   2.0000      -0.633966       -17.2511 
  20   2.0000      -0.609235       -16.5781 
  21   2.0000      -0.607140       -16.5211 
  22   2.0000      -0.602513       -16.3952 
  23   2.0000      -0.580037       -15.7836 
  24   2.0000      -0.518186       -14.1006 
  25   2.0000      -0.511332       -13.9141 
  26   2.0000      -0.502801       -13.6819 
  27   2.0000      -0.481148       -13.0927 
  28   2.0000      -0.476119       -12.9559 
  29   2.0000      -0.415069       -11.2946 
  30   2.0000      -0.401262       -10.9189 
  31   2.0000      -0.383543       -10.4367 
  32   2.0000      -0.376843       -10.2544 
  33   2.0000      -0.358484        -9.7548 
  34   2.0000      -0.327671        -8.9164 
  35   2.0000      -0.272809        -7.4235 
  36   0.0000      -0.037670        -1.0250 
  37   0.0000       0.031103         0.8464 
  38   0.0000       0.071015         1.9324 
  39   0.0000       0.093566         2.5461 
  40   0.0000       0.116477         3.1695 
  41   0.0000       0.129619         3.5271 
  42   0.0000       0.147619         4.0169 
  43   0.0000       0.167208         4.5500 
  44   0.0000       0.175071         4.7639 
  45   0.0000       0.198091         5.3903 
  46   0.0000       0.204267         5.5584 
*Only the first 10 virtual orbitals were printed.

                    ********************************
                    * MULLIKEN POPULATION ANALYSIS *
                    ********************************

-----------------------
MULLIKEN ATOMIC CHARGES
-----------------------
   0 C :   -0.183245
   1 C :   -0.228498
   2 C :    0.081964
   3 H :    0.206853
   4 C :    0.270230
   5 H :    0.158690
   6 C :   -0.147485
   7 C :   -0.258403
   8 H :    0.177640
   9 H :    0.173255
  10 N :   -0.547449
  11 H :    0.346346
  12 H :    0.288590
  13 N :    0.445584
  14 O :   -0.391114
  15 O :   -0.392958
Sum of atomic charges:    0.0000000

--------------------------------
MULLIKEN REDUCED ORBITAL CHARGES
--------------------------------
  0 C s       :     3.254733  s :     3.254733
      pz      :     0.891396  p :     2.828676
      px      :     1.026498
      py      :     0.910781
      dz2     :     0.026091  d :     0.092272
      dxz     :     0.014731
      dyz     :     0.014289
      dx2y2   :     0.021770
      dxy     :     0.015391
      f0      :     0.000982  f :     0.007565
      f+1     :     0.000803
      f-1     :     0.001336
      f+2     :     0.001367
      f-2     :     0.001110
      f+3     :     0.000827
      f-3     :     0.001140

  1 C s       :     3.243208  s :     3.243208
      pz      :     1.028320  p :     2.905791
      px      :     0.915266
      py      :     0.962204
      dz2     :     0.011492  d :     0.072262
      dxz     :     0.013796
      dyz     :     0.012849
      dx2y2   :     0.018935
      dxy     :     0.015190
      f0      :     0.000332  f :     0.007237
      f+1     :     0.000984
      f-1     :     0.001219
      f+2     :     0.001086
      f-2     :     0.001251
      f+3     :     0.001053
      f-3     :     0.001312

  2 C s       :     3.109065  s :     3.109065
      pz      :     0.917052  p :     2.680248
      px      :     0.862854
      py      :     0.900342
      dz2     :     0.023238  d :     0.116556
      dxz     :     0.028539
      dyz     :     0.014899
      dx2y2   :     0.023172
      dxy     :     0.026708
      f0      :     0.001390  f :     0.012168
      f+1     :     0.001313
      f-1     :     0.001570
      f+2     :     0.002145
      f-2     :     0.002202
      f+3     :     0.001802
      f-3     :     0.001743

  3 H s       :     0.770827  s :     0.770827
      pz      :     0.004474  p :     0.022320
      px      :     0.013440
      py      :     0.004407

  4 C s       :     3.076283  s :     3.076283
      pz      :     0.834374  p :     2.489438
      px      :     0.841770
      py      :     0.813294
      dz2     :     0.033409  d :     0.150456
      dxz     :     0.034105
      dyz     :     0.018804
      dx2y2   :     0.037497
      dxy     :     0.026640
      f0      :     0.001315  f :     0.013593
      f+1     :     0.001806
      f-1     :     0.001940
      f+2     :     0.002330
      f-2     :     0.001984
      f+3     :     0.001929
      f-3     :     0.002290

  5 H s       :     0.819075  s :     0.819075
      pz      :     0.010307  p :     0.022234
      px      :     0.005299
      py      :     0.006628

  6 C s       :     3.225201  s :     3.225201
      pz      :     0.980204  p :     2.826665
      px      :     0.914380
      py      :     0.932082
      dz2     :     0.011166  d :     0.088060
      dxz     :     0.020164
      dyz     :     0.014356
      dx2y2   :     0.025378
      dxy     :     0.016996
      f0      :     0.000321  f :     0.007558
      f+1     :     0.001199
      f-1     :     0.001282
      f+2     :     0.001065
      f-2     :     0.001249
      f+3     :     0.000996
      f-3     :     0.001446

  7 C s       :     3.235084  s :     3.235084
      pz      :     0.956591  p :     2.946339
      px      :     1.032378
      py      :     0.957370
      dz2     :     0.017429  d :     0.069751
      dxz     :     0.011272
      dyz     :     0.011959
      dx2y2   :     0.016526
      dxy     :     0.012566
      f0      :     0.000750  f :     0.007228
      f+1     :     0.000724
      f-1     :     0.001398
      f+2     :     0.001377
      f-2     :     0.001176
      f+3     :     0.000722
      f-3     :     0.001080

  8 H s       :     0.800311  s :     0.800311
      pz      :     0.005064  p :     0.022049
      px      :     0.012555
      py      :     0.004430

  9 H s       :     0.804294  s :     0.804294
      pz      :     0.010153  p :     0.022451
      px      :     0.005211
      py      :     0.007087

 10 N s       :     3.476382  s :     3.476382
      pz      :     1.418918  p :     4.035281
      px      :     1.260415
      py      :     1.355947
      dz2     :     0.005396  d :     0.032487
      dxz     :     0.005479
      dyz     :     0.007183
      dx2y2   :     0.007697
      dxy     :     0.006732
      f0      :     0.000312  f :     0.003299
      f+1     :     0.000220
      f-1     :     0.000597
      f+2     :     0.000564
      f-2     :     0.000768
      f+3     :     0.000343
      f-3     :     0.000495

 11 H s       :     0.617300  s :     0.617300
      pz      :     0.016103  p :     0.036354
      px      :     0.008258
      py      :     0.011993

 12 H s       :     0.675383  s :     0.675383
      pz      :     0.009152  p :     0.036027
      px      :     0.018032
      py      :     0.008843

 13 N s       :     3.283740  s :     3.283740
      pz      :     0.995408  p :     2.997624
      px      :     0.950836
      py      :     1.051380
      dz2     :     0.054117  d :     0.257939
      dxz     :     0.062040
      dyz     :     0.031244
      dx2y2   :     0.051165
      dxy     :     0.059373
      f0      :     0.001900  f :     0.015113
      f+1     :     0.002399
      f-1     :     0.001760
      f+2     :     0.002943
      f-2     :     0.001660
      f+3     :     0.001926
      f-3     :     0.002526

 14 O s       :     3.819679  s :     3.819679
      pz      :     1.633551  p :     4.529233
      px      :     1.227123
      py      :     1.668559
      dz2     :     0.004832  d :     0.038896
      dxz     :     0.010731
      dyz     :     0.002220
      dx2y2   :     0.012250
      dxy     :     0.008863
      f0      :     0.000331  f :     0.003306
      f+1     :     0.000576
      f-1     :     0.000048
      f+2     :     0.000577
      f-2     :     0.000346
      f+3     :     0.000784
      f-3     :     0.000645

 15 O s       :     3.863672  s :     3.863672
      pz      :     1.294155  p :     4.485685
      px      :     1.666089
      py      :     1.525440
      dz2     :     0.011159  d :     0.040331
      dxz     :     0.008875
      dyz     :     0.010171
      dx2y2   :     0.003954
      dxy     :     0.006172
      f0      :     0.000545  f :     0.003271
      f+1     :     0.000562
      f-1     :     0.000583
      f+2     :     0.000448
      f-2     :     0.000740
      f+3     :     0.000222
      f-3     :     0.000170



                     *******************************
                     * LOEWDIN POPULATION ANALYSIS *
                     *******************************

----------------------
LOEWDIN ATOMIC CHARGES
----------------------
   0 C :   -0.090781
   1 C :   -0.118723
   2 C :   -0.194813
   3 H :    0.167288
   4 C :   -0.223479
   5 H :    0.155001
   6 C :   -0.089630
   7 C :   -0.128023
   8 H :    0.155333
   9 H :    0.161204
  10 N :   -0.002628
  11 H :    0.204928
  12 H :    0.185525
  13 N :   -0.005891
  14 O :   -0.096188
  15 O :   -0.079123

-------------------------------
LOEWDIN REDUCED ORBITAL CHARGES
-------------------------------
  0 C s       :     2.754308  s :     2.754308
      pz      :     0.947801  p :     2.892698
      px      :     0.982299
      py      :     0.962598
      dz2     :     0.098423  d :     0.397439
      dxz     :     0.065547
      dyz     :     0.073700
      dx2y2   :     0.091379
      dxy     :     0.068389
      f0      :     0.006278  f :     0.046337
      f+1     :     0.006318
      f-1     :     0.006900
      f+2     :     0.007766
      f-2     :     0.006362
      f+3     :     0.005527
      f-3     :     0.007187

  1 C s       :     2.749504  s :     2.749504
      pz      :     0.969521  p :     2.964214
      px      :     0.999782
      py      :     0.994910
      dz2     :     0.050606  d :     0.362011
      dxz     :     0.075485
      dyz     :     0.059285
      dx2y2   :     0.083248
      dxy     :     0.093387
      f0      :     0.003032  f :     0.042994
      f+1     :     0.006134
      f-1     :     0.005513
      f+2     :     0.007702
      f-2     :     0.005387
      f+3     :     0.006170
      f-3     :     0.009056

  2 C s       :     2.705157  s :     2.705157
      pz      :     0.985073  p :     2.886189
      px      :     0.998258
      py      :     0.902858
      dz2     :     0.091140  d :     0.534610
      dxz     :     0.121683
      dyz     :     0.089294
      dx2y2   :     0.106306
      dxy     :     0.126187
      f0      :     0.008077  f :     0.068857
      f+1     :     0.008173
      f-1     :     0.008501
      f+2     :     0.012774
      f-2     :     0.009891
      f+3     :     0.010365
      f-3     :     0.011077

  3 H s       :     0.772296  s :     0.772296
      pz      :     0.013213  p :     0.060416
      px      :     0.034306
      py      :     0.012897

  4 C s       :     2.706136  s :     2.706136
      pz      :     0.915156  p :     2.778082
      px      :     0.992095
      py      :     0.870831
      dz2     :     0.123353  d :     0.656424
      dxz     :     0.146472
      dyz     :     0.098698
      dx2y2   :     0.157938
      dxy     :     0.129963
      f0      :     0.007666  f :     0.082837
      f+1     :     0.012903
      f-1     :     0.011683
      f+2     :     0.014646
      f-2     :     0.009322
      f+3     :     0.010388
      f-3     :     0.016229

  5 H s       :     0.784987  s :     0.784987
      pz      :     0.026229  p :     0.060012
      px      :     0.015578
      py      :     0.018206

  6 C s       :     2.753879  s :     2.753879
      pz      :     0.934217  p :     2.892507
      px      :     1.000719
      py      :     0.957572
      dz2     :     0.050327  d :     0.396971
      dxz     :     0.088404
      dyz     :     0.062779
      dx2y2   :     0.101667
      dxy     :     0.093793
      f0      :     0.003087  f :     0.046273
      f+1     :     0.007771
      f-1     :     0.005771
      f+2     :     0.007570
      f-2     :     0.005559
      f+3     :     0.006406
      f-3     :     0.010110

  7 C s       :     2.750804  s :     2.750804
      pz      :     0.985961  p :     2.971454
      px      :     0.983218
      py      :     1.002275
      dz2     :     0.071954  d :     0.362915
      dxz     :     0.062327
      dyz     :     0.076973
      dx2y2   :     0.086826
      dxy     :     0.064835
      f0      :     0.004658  f :     0.042850
      f+1     :     0.005462
      f-1     :     0.006873
      f+2     :     0.007952
      f-2     :     0.006335
      f+3     :     0.004611
      f-3     :     0.006959

  8 H s       :     0.785517  s :     0.785517
      pz      :     0.014731  p :     0.059150
      px      :     0.031322
      py      :     0.013096

  9 H s       :     0.778181  s :     0.778181
      pz      :     0.026403  p :     0.060615
      px      :     0.015247
      py      :     0.018965

 10 N s       :     2.971883  s :     2.971883
      pz      :     1.349945  p :     3.880507
      px      :     1.223815
      py      :     1.306747
      dz2     :     0.020135  d :     0.139822
      dxz     :     0.021849
      dyz     :     0.030927
      dx2y2   :     0.032749
      dxy     :     0.034162
      f0      :     0.001201  f :     0.010416
      f+1     :     0.000895
      f-1     :     0.001659
      f+2     :     0.001993
      f-2     :     0.001588
      f+3     :     0.001129
      f-3     :     0.001951

 11 H s       :     0.682788  s :     0.682788
      pz      :     0.046221  p :     0.112283
      px      :     0.028997
      py      :     0.037065

 12 H s       :     0.707069  s :     0.707069
      pz      :     0.030490  p :     0.107406
      px      :     0.051056
      py      :     0.025860

 13 N s       :     2.912999  s :     2.912999
      pz      :     1.069677  p :     3.253408
      px      :     1.096929
      py      :     1.086802
      dz2     :     0.148402  d :     0.764583
      dxz     :     0.194173
      dyz     :     0.102503
      dx2y2   :     0.157486
      dxy     :     0.162019
      f0      :     0.009647  f :     0.074900
      f+1     :     0.011698
      f-1     :     0.008967
      f+2     :     0.015482
      f-2     :     0.005874
      f+3     :     0.009594
      f-3     :     0.013639

 14 O s       :     3.488839  s :     3.488839
      pz      :     1.578429  p :     4.502220
      px      :     1.333765
      py      :     1.590025
      dz2     :     0.012341  d :     0.094234
      dxz     :     0.026156
      dyz     :     0.004205
      dx2y2   :     0.029380
      dxy     :     0.022151
      f0      :     0.001090  f :     0.010895
      f+1     :     0.001919
      f-1     :     0.000142
      f+2     :     0.002035
      f-2     :     0.001014
      f+3     :     0.002405
      f-3     :     0.002290

 15 O s       :     3.487059  s :     3.487059
      pz      :     1.364011  p :     4.483605
      px      :     1.620945
      py      :     1.498648
      dz2     :     0.022825  d :     0.097337
      dxz     :     0.023736
      dyz     :     0.027379
      dx2y2   :     0.010117
      dxy     :     0.013280
      f0      :     0.001455  f :     0.011123
      f+1     :     0.001946
      f-1     :     0.002215
      f+2     :     0.001789
      f-2     :     0.002601
      f+3     :     0.000581
      f-3     :     0.000536



                      *****************************
                      * MAYER POPULATION ANALYSIS *
                      *****************************

  NA   - Mulliken gross atomic population
  ZA   - Total nuclear charge
  QA   - Mulliken gross atomic charge
  VA   - Mayer's total valence
  BVA  - Mayer's bonded valence
  FA   - Mayer's free valence

  ATOM       NA         ZA         QA         VA         BVA        FA
  0 C      6.1832     6.0000    -0.1832     3.9573     3.9573    -0.0000
  1 C      6.2285     6.0000    -0.2285     3.9454     3.9454    -0.0000
  2 C      5.9180     6.0000     0.0820     3.7620     3.7620     0.0000
  3 H      0.7931     1.0000     0.2069     0.9767     0.9767    -0.0000
  4 C      5.7298     6.0000     0.2702     3.8929     3.8929    -0.0000
  5 H      0.8413     1.0000     0.1587     0.9749     0.9749     0.0000
  6 C      6.1475     6.0000    -0.1475     4.0579     4.0579     0.0000
  7 C      6.2584     6.0000    -0.2584     3.9441     3.9441     0.0000
  8 H      0.8224     1.0000     0.1776     0.9713     0.9713     0.0000
  9 H      0.8267     1.0000     0.1733     0.9951     0.9951     0.0000
 10 N      7.5474     7.0000    -0.5474     3.0782     3.0782    -0.0000
 11 H      0.6537     1.0000     0.3463     0.8877     0.8877    -0.0000
 12 H      0.7114     1.0000     0.2886     0.9219     0.9219     0.0000
 13 N      6.5544     7.0000     0.4456     4.3508     4.3508    -0.0000
 14 O      8.3911     8.0000    -0.3911     1.8927     1.8927     0.0000
 15 O      8.3930     8.0000    -0.3930     1.8785     1.8785    -0.0000

  Mayer bond orders larger than 0.100000
B(  0-C ,  1-C ) :   1.5271 B(  0-C ,  2-C ) :   1.3077 B(  0-C ,  3-H ) :   0.9270 
B(  1-C ,  4-C ) :   1.3250 B(  1-C ,  5-H ) :   0.9572 B(  2-C ,  6-C ) :   1.3708 
B(  2-C , 13-N ) :   1.0837 B(  4-C ,  7-C ) :   1.2944 B(  4-C , 10-N ) :   1.1722 
B(  6-C ,  7-C ) :   1.5573 B(  6-C ,  9-H ) :   0.9137 B(  7-C ,  8-H ) :   0.9338 
B( 10-N , 11-H ) :   0.8616 B( 10-N , 12-H ) :   0.8991 B( 13-N , 14-O ) :   1.6352 
B( 13-N , 15-O ) :   1.5999 B( 14-O , 15-O ) :   0.1544 

-------
TIMINGS
-------

Total SCF time: 0 days 0 hours 18 min 19 sec 

Total time                  ....    1099.550 sec
Sum of individual times     ....    1083.368 sec  ( 98.5%)

SCF preparation             ....       4.595 sec  (  0.4%)
Fock matrix formation       ....    1048.494 sec  ( 95.4%)
  Startup                   ....       1.246 sec  (  0.1% of F)
  Split-RI-J                ....      27.080 sec  (  2.6% of F)
  Chain of spheres X        ....     882.163 sec  ( 84.1% of F)
  XC integration            ....     117.848 sec  ( 11.2% of F)
    XC Preparation          ....       0.000 sec  (  0.0% of XC)
    Basis function eval.    ....      27.791 sec  ( 23.6% of XC)
    Density eval.           ....      26.815 sec  ( 22.8% of XC)
    XC-Functional eval.     ....       6.127 sec  (  5.2% of XC)
    XC-Potential eval.      ....      35.735 sec  ( 30.3% of XC)
Diagonalization             ....       0.000 sec  (  0.0%)
Density matrix formation    ....       6.509 sec  (  0.6%)
Total Energy calculation    ....       0.454 sec  (  0.0%)
Population analysis         ....       0.476 sec  (  0.0%)
Orbital Transformation      ....       1.281 sec  (  0.1%)
Orbital Orthonormalization  ....       0.000 sec  (  0.0%)
DIIS solution               ....       6.436 sec  (  0.6%)
SOSCF solution              ....      15.096 sec  (  1.4%)
Finished LeanSCF after 1100.9 sec

Maximum memory used throughout the entire LEANSCF-calculation: 53.1 MB
------------------------------------------------------------------------------
                        ORCA TD-DFT/TDA CALCULATION
------------------------------------------------------------------------------

Input orbitals are from        ... ex_state.gbw
CI-vector output               ... ex_state.cis
Solver                         ... FN-2001
Tamm-Dancoff approximation     ... operative
CIS-Integral strategy          ... AO-integrals
Integral handling              ... AO integral Direct
Max. core memory used          ... 512 MB
Reference state                ... RHF
Generation of triplets         ... off
Follow IRoot                   ... off
Number of operators            ... 1
Orbital ranges used for CIS calculation:
 Operator 0:  Orbitals  10... 35  to  36...345
XAS localization array:
 Operator 0:  Orbitals  -1... -1

-------------------
XC-INTEGRATION GRID
-------------------

General Integration Accuracy     IntAcc      ... 3.467
Radial Grid Type                 RadialGrid  ... OptM3 with GC (2021)
Angular Grid (max. ang.)         AngularGrid ... 3 (Lebedev-194)
Angular grid pruning method      GridPruning ... 4 (adaptive)
Weight generation scheme         WeightScheme... mBecke (2022)
Basis function cutoff            BFCut       ... 1.0000e-12
Integration weight cutoff        WCut        ... 1.0000e-14
Partially contracted basis set               ... off
Rotationally invariant grid construction     ... off
Angular grids for H and He will be reduced by one unit

Total number of grid points                  ...    31148
Total number of batches                      ...      495
Average number of points per batch           ...       62
Average number of grid points per atom       ...     1947

---------------------
COSX-INTEGRATION GRID
---------------------

General Integration Accuracy     IntAcc      ... 3.067
Radial Grid Type                 RadialGrid  ... OptM3 with GC (2021)
Angular Grid (max. ang.)         AngularGrid ... 2 (Lebedev-110)
Angular grid pruning method      GridPruning ... 4 (adaptive)
Weight generation scheme         WeightScheme... mBecke (2022)
Basis function cutoff            BFCut       ... 1.0000e-12
Integration weight cutoff        WCut        ... 1.0000e-14
Partially contracted basis set               ... on
Rotationally invariant grid construction     ... off
Angular grids for H and He will be reduced by one unit

Total number of grid points                  ...    12699
Total number of batches                      ...      108
Average number of points per batch           ...      117
Average number of grid points per atom       ...      794

---------------
TD-DFT XC SETUP
---------------

DFT calculation                         ... on
Name of the grid file                   ... ex_state.grid_cis.tmp
RI-approximation                        ... on
Aux-basis dimension                     ... 850
Exchange functional (TD-DFT)            ... WB88
Correlation functional (TD-DFT)         ... LYP
 LDA part of GGA corr.  LDAOpt (TD-DFT) ... VWN-5
Hybrid DFT                              ... on
   Exchange mixing (TD-DFT)             ...  0.190
   GGA exch. scaling (TD-DFT)           ...  0.350
   GGA corr. scaling (TD-DFT)           ...  0.810
Range-Separated Exchange                ... on
   Range Range separation parameter mu  .... 0.330
   Max. amount of RS exchange (TD-DFT)  ...  0.460

Building densities             ... done
Calculating rho(r) on the grid ... done
Building xc-kernel on the grid ... done
                    *** TD-DFT CALCULATION INITIALIZED ***

------------------------
DAVIDSON-DIAGONALIZATION
------------------------

Dimension of the eigenvalue problem            ...   8060
Number of roots to be determined               ...      6
Maximum size of the expansion space            ...    120
Maximum number of iterations                   ...    100
Convergence tolerance for the residual         ...    1.000e-07
Convergence tolerance for the energies         ...    1.000e-07
Orthogonality tolerance                        ...    1.000e-14
Level Shift                                    ...    0.000e+00
Constructing the preconditioner                ... o.k.
Building the initial guess                     ... o.k.
Number of trial vectors determined             ...    120


                       ****Iteration    0****
   Time for iteration     :  TOTAL=68.7 TRAFO=3.9 RIJ=9.7 COSX=32.1 XC=22.9
   Size of expansion space: 18
   Lowest Energy          :     0.162962221485
   Maximum Energy change  :     0.260898899248 (vector 5)
   Maximum residual norm  :     0.020555511050

                       ****Iteration    1****
   Time for iteration     :  TOTAL=48.6 TRAFO=0.7 RIJ=4.5 COSX=31.8 XC=11.4
   Size of expansion space: 24
   Lowest Energy          :     0.151315632200
   Maximum Energy change  :     0.019020121508 (vector 1)
   Maximum residual norm  :     0.002279404329

                       ****Iteration    2****
   Time for iteration     :  TOTAL=37.2 TRAFO=0.6 RIJ=5.5 COSX=23.8 XC=7.2
   Size of expansion space: 30
   Lowest Energy          :     0.151066181973
   Maximum Energy change  :     0.006911908867 (vector 5)
   Maximum residual norm  :     0.000869924814

                       ****Iteration    3****
   Time for iteration     :  TOTAL=40.6 TRAFO=1.2 RIJ=3.8 COSX=28.5 XC=7.1
   Size of expansion space: 36
   Lowest Energy          :     0.151054039514
   Maximum Energy change  :     0.000926846423 (vector 5)
   Maximum residual norm  :     0.000061917944

                       ****Iteration    4****
   Time for iteration     :  TOTAL=36.9 TRAFO=1.4 RIJ=4.1 COSX=24.0 XC=7.3
   Size of expansion space: 42
   Lowest Energy          :     0.151052786353
   Maximum Energy change  :     0.000082930816 (vector 5)
   Maximum residual norm  :     0.000005166252

                       ****Iteration    5****
   Time for iteration     :  TOTAL=38.3 TRAFO=0.9 RIJ=5.0 COSX=25.1 XC=7.4
   Size of expansion space: 48
   Lowest Energy          :     0.151052720325
   Maximum Energy change  :     0.000005522187 (vector 5)
   Maximum residual norm  :     0.000000592946

                       ****Iteration    6****
   Time for iteration     :  TOTAL=38.2 TRAFO=1.1 RIJ=5.3 COSX=22.9 XC=8.8
   Size of expansion space: 54
   Lowest Energy          :     0.151052717817
   Maximum Energy change  :     0.000000871097 (vector 5)
   Maximum residual norm  :     0.000000062486

      *** CONVERGENCE OF RESIDUAL NORM REACHED ***

Storing the converged CI vectors               ... ex_state.cis1

                 *** DAVIDSON DONE ***

Total time for solving the CIS problem:   409.714sec

------------------------------------
TD-DFT/TDA EXCITED STATES (SINGLETS)
------------------------------------

the weight of the individual excitations are printed if larger than 1.0e-02

STATE  1:  E=   0.151053 au      4.110 eV    33152.2 cm**-1 <S**2> =   0.000000 Mult 1
    33a ->  36a  :     0.933550 (c= -0.96620379)
    33a ->  38a  :     0.060466 (c=  0.24589863)

STATE  2:  E=   0.158491 au      4.313 eV    34784.8 cm**-1 <S**2> =   0.000000 Mult 1
    30a ->  36a  :     0.014191 (c= -0.11912411)
    34a ->  37a  :     0.025491 (c=  0.15965833)
    35a ->  36a  :     0.928810 (c=  0.96374800)

STATE  3:  E=   0.178097 au      4.846 eV    39087.8 cm**-1 <S**2> =   0.000000 Mult 1
    31a ->  36a  :     0.921442 (c= -0.95991779)
    31a ->  38a  :     0.056651 (c=  0.23801374)

STATE  4:  E=   0.178332 au      4.853 eV    39139.4 cm**-1 <S**2> =   0.000000 Mult 1
    34a ->  36a  :     0.588432 (c= -0.76709312)
    34a ->  38a  :     0.019972 (c= -0.14132370)
    35a ->  37a  :     0.370884 (c=  0.60900285)

STATE  5:  E=   0.206842 au      5.628 eV    45396.5 cm**-1 <S**2> =   0.000000 Mult 1
    34a ->  36a  :     0.389282 (c= -0.62392475)
    34a ->  38a  :     0.043558 (c=  0.20870656)
    35a ->  37a  :     0.539835 (c= -0.73473433)

STATE  6:  E=   0.241937 au      6.583 eV    53099.1 cm**-1 <S**2> =   0.000000 Mult 1
    30a ->  36a  :     0.034061 (c=  0.18455502)
    34a ->  37a  :     0.179426 (c=  0.42358728)
    35a ->  38a  :     0.743114 (c=  0.86204072)


------------------------------------------
NATURAL TRANSITION ORBITALS FOR STATE    1
------------------------------------------

Making the (pseudo)densities                       ... done
Solving eigenvalue problem for the occupied space  ... done
Solving eigenvalue problem for the virtual space   ... done
Natural Transition Orbitals were saved in ex_state.s1.nto
Threshold for printing occupation numbers 0.000100

 E=   0.151053 au      4.110 eV    33152.2 cm**-1
    35a ->  36a  : n=  0.99906294
    34a ->  37a  : n=  0.00041265
    33a ->  38a  : n=  0.00029117


------------------------------------------
NATURAL TRANSITION ORBITALS FOR STATE    2
------------------------------------------

Making the (pseudo)densities                       ... done
Solving eigenvalue problem for the occupied space  ... done
Solving eigenvalue problem for the virtual space   ... done
Natural Transition Orbitals were saved in ex_state.s2.nto
Threshold for printing occupation numbers 0.000100

 E=   0.158491 au      4.313 eV    34784.8 cm**-1
    35a ->  36a  : n=  0.94564686
    34a ->  37a  : n=  0.02633728
    33a ->  38a  : n=  0.00653080
    32a ->  39a  : n=  0.00483903
    31a ->  40a  : n=  0.00403828
    30a ->  41a  : n=  0.00288172
    29a ->  42a  : n=  0.00237413
    28a ->  43a  : n=  0.00105653
    27a ->  44a  : n=  0.00099767
    26a ->  45a  : n=  0.00089959
    25a ->  46a  : n=  0.00084044
    24a ->  47a  : n=  0.00081270
    23a ->  48a  : n=  0.00062154
    22a ->  49a  : n=  0.00052321
    21a ->  50a  : n=  0.00043710
    20a ->  51a  : n=  0.00040257
    19a ->  52a  : n=  0.00020252
    18a ->  53a  : n=  0.00017350
    17a ->  54a  : n=  0.00012680


------------------------------------------
NATURAL TRANSITION ORBITALS FOR STATE    3
------------------------------------------

Making the (pseudo)densities                       ... done
Solving eigenvalue problem for the occupied space  ... done
Solving eigenvalue problem for the virtual space   ... done
Natural Transition Orbitals were saved in ex_state.s3.nto
Threshold for printing occupation numbers 0.000100

 E=   0.178097 au      4.846 eV    39087.8 cm**-1
    35a ->  36a  : n=  0.99512994
    34a ->  37a  : n=  0.00273133
    33a ->  38a  : n=  0.00142013
    32a ->  39a  : n=  0.00037951


------------------------------------------
NATURAL TRANSITION ORBITALS FOR STATE    4
------------------------------------------

Making the (pseudo)densities                       ... done
Solving eigenvalue problem for the occupied space  ... done
Solving eigenvalue problem for the virtual space   ... done
Natural Transition Orbitals were saved in ex_state.s4.nto
Threshold for printing occupation numbers 0.000100

 E=   0.178332 au      4.853 eV    39139.4 cm**-1
    35a ->  36a  : n=  0.61821047
    34a ->  37a  : n=  0.37602089
    33a ->  38a  : n=  0.00128308
    32a ->  39a  : n=  0.00127323
    31a ->  40a  : n=  0.00067883
    30a ->  41a  : n=  0.00046316
    29a ->  42a  : n=  0.00040565
    28a ->  43a  : n=  0.00032413
    27a ->  44a  : n=  0.00030607
    26a ->  45a  : n=  0.00025214
    25a ->  46a  : n=  0.00023379
    24a ->  47a  : n=  0.00018498
    23a ->  48a  : n=  0.00012238


------------------------------------------
NATURAL TRANSITION ORBITALS FOR STATE    5
------------------------------------------

Making the (pseudo)densities                       ... done
Solving eigenvalue problem for the occupied space  ... done
Solving eigenvalue problem for the virtual space   ... done
Natural Transition Orbitals were saved in ex_state.s5.nto
Threshold for printing occupation numbers 0.000100

 E=   0.206842 au      5.628 eV    45396.5 cm**-1
    35a ->  36a  : n=  0.54386850
    34a ->  37a  : n=  0.44174068
    33a ->  38a  : n=  0.00259230
    32a ->  39a  : n=  0.00233435
    31a ->  40a  : n=  0.00145638
    30a ->  41a  : n=  0.00136367
    29a ->  42a  : n=  0.00118168
    28a ->  43a  : n=  0.00102473
    27a ->  44a  : n=  0.00092239
    26a ->  45a  : n=  0.00090573
    25a ->  46a  : n=  0.00081902
    24a ->  47a  : n=  0.00071748
    23a ->  48a  : n=  0.00029167
    22a ->  49a  : n=  0.00015581
    21a ->  50a  : n=  0.00014244
    20a ->  51a  : n=  0.00013500


[...]
      f-3     :     0.002028
 11 H s       :     0.681024  s :     0.681024
      pz      :     0.046218  p :     0.112577
      px      :     0.029098
      py      :     0.037261
 12 H s       :     0.705003  s :     0.705003
      pz      :     0.030520  p :     0.107687
      px      :     0.051228
      py      :     0.025939
 13 N s       :     2.903929  s :     2.903929
      pz      :     1.102220  p :     3.318937
      px      :     1.103387
      py      :     1.113330
      dz2     :     0.146589  d :     0.759533
      dxz     :     0.192707
      dyz     :     0.102493
      dx2y2   :     0.155074
      dxy     :     0.162670
      f0      :     0.009790  f :     0.075792
      f+1     :     0.012032
      f-1     :     0.008980
      f+2     :     0.015407
      f-2     :     0.006536
      f+3     :     0.009525
      f-3     :     0.013524
 14 O s       :     3.485772  s :     3.485772
      pz      :     1.596688  p :     4.546548
      px      :     1.343354
      py      :     1.606505
      dz2     :     0.012739  d :     0.098070
      dxz     :     0.027012
      dyz     :     0.004781
      dx2y2   :     0.030392
      dxy     :     0.023147
      f0      :     0.001098  f :     0.011252
      f+1     :     0.002020
      f-1     :     0.000139
      f+2     :     0.002004
      f-2     :     0.001118
      f+3     :     0.002563
      f-3     :     0.002311
 15 O s       :     3.484103  s :     3.484103
      pz      :     1.386544  p :     4.527743
      px      :     1.625242
      py      :     1.515957
      dz2     :     0.026656  d :     0.101273
      dxz     :     0.023305
      dyz     :     0.027079
      dx2y2   :     0.010046
      dxy     :     0.014187
      f0      :     0.001784  f :     0.011505
      f+1     :     0.001969
      f-1     :     0.002252
      f+2     :     0.001744
      f-2     :     0.002613
      f+3     :     0.000622
      f-3     :     0.000521


                      *****************************
                      * MAYER POPULATION ANALYSIS *
                      *****************************

  NA   - Mulliken gross atomic population
  ZA   - Total nuclear charge
  QA   - Mulliken gross atomic charge
  VA   - Mayer's total valence
  BVA  - Mayer's bonded valence
  FA   - Mayer's free valence

  ATOM       NA         ZA         QA         VA         BVA        FA
  0 C      6.1859     6.0000    -0.1859     3.9018     3.4711     0.4307
  1 C      6.1916     6.0000    -0.1916     3.9010     3.4610     0.4400
  2 C      5.8727     6.0000     0.1273     3.8372     3.5995     0.2377
  3 H      0.7790     1.0000     0.2210     0.9772     0.9741     0.0032
  4 C      5.7803     6.0000     0.2197     3.8872     3.6627     0.2245
  5 H      0.8259     1.0000     0.1741     0.9712     0.9673     0.0039
  6 C      6.1515     6.0000    -0.1515     3.9994     3.5686     0.4308
  7 C      6.2214     6.0000    -0.2214     3.9014     3.4474     0.4539
  8 H      0.8076     1.0000     0.1924     0.9671     0.9632     0.0039
  9 H      0.8122     1.0000     0.1878     0.9974     0.9943     0.0031
 10 N      7.5341     7.0000    -0.5341     3.1048     2.9355     0.1693
 11 H      0.6514     1.0000     0.3486     0.8864     0.8841     0.0023
 12 H      0.7083     1.0000     0.2917     0.9200     0.9178     0.0022
 13 N      6.5947     7.0000     0.4053     4.3217     4.1396     0.1821
 14 O      8.4408     8.0000    -0.4408     1.8551     1.7010     0.1541
 15 O      8.4426     8.0000    -0.4426     1.8400     1.6854     0.1547

  Mayer bond orders larger than 0.100000
B(  0-C ,  1-C ) :   1.2020 B(  0-C ,  2-C ) :   1.2697 B(  0-C ,  3-H ) :   0.9225 
B(  1-C ,  4-C ) :   1.2902 B(  1-C ,  5-H ) :   0.9530 B(  2-C ,  6-C ) :   1.3376 
B(  2-C , 13-N ) :   1.1125 B(  4-C ,  7-C ) :   1.2597 B(  4-C , 10-N ) :   1.1178 
B(  6-C ,  7-C ) :   1.2227 B(  6-C ,  9-H ) :   0.9101 B(  7-C ,  8-H ) :   0.9302 
B( 10-N , 11-H ) :   0.8595 B( 10-N , 12-H ) :   0.8973 B( 13-N , 14-O ) :   1.5404 
B( 13-N , 15-O ) :   1.5026 B( 14-O , 15-O ) :   0.1051 


-------
TIMINGS
-------

Total TD-DFT gradient time  ....      920.307 sec

Fock matrix formation       ....     256.089 sec  ( 27.8%)
  Coulomb formation         ....     230.976 sec  ( 90.2% of F)
  XC integration            ....      25.113 sec  (  9.8% of F)
Z-vector equation           ....     305.190 sec  ( 33.2%)
Densities                   ....       0.001 sec  (  0.0%)
One electron gradient       ....       0.724 sec  (  0.1%)
Two electron gradient       ....       0.000 sec  (  0.0%)
RI-J Coulomb gradient       ....       5.716 sec  (  0.6%)
COSX gradient               ....      66.177 sec  (  7.2%)
XC gradient                 ....     234.088 sec  ( 25.4%)

Maximum memory used throughout the entire CIS-calculation: 174.2 MB
=> NOW LEAVING ORCA_CIS


-------------------------------------------------------------------------------
                          DFT DISPERSION CORRECTION                            
                                                                               
                              DFTD3 V3.1  Rev 1                                
                          USING Becke-Johnson damping                          
-------------------------------------------------------------------------------
The CAM-B3LYP functional is recognized
Active option DFTDOPT                   ...         4   

molecular C6(AA) [au] = 3075.565155 


            DFT-D V3
 parameters
 s6 scaling factor         :     1.0000 
 a1 scaling factor         :     0.3708 
 s8 scaling factor         :     2.0674 
 a2 scaling factor         :     5.4743 
 ad hoc parameters k1-k3   :    16.0000     1.3333    -4.0000 

 Edisp/kcal,au: -8.239173313547  -0.013129957037 
 E6   /kcal   :  -4.309294881 
 E8   /kcal   :  -3.929878433 
 % E8         :  47.697484728 

-------------------------   ----------------
Dispersion correction           -0.013129957
-------------------------   ----------------


-------------------------   --------------------
FINAL SINGLE POINT ENERGY      -491.970267240755
-------------------------   --------------------



--------------------------------------   --------------------
FINAL SINGLE POINT ENERGY (QM/MM)     -520.028539149711
--------------------------------------   --------------------

                    ************************************                      
                    *    QM/MM Gradient Calculation    *                      
                    ************************************                      


------------------------------------------------------------------------------
                                     MM                                       
------------------------------------------------------------------------------
------------------------------------------------------------------------------
                                     QM                                       
------------------------------------------------------------------------------


------------------
CARTESIAN GRADIENT (QM/MM)
------------------
   1   C   :   -0.030642565   -0.037064453    0.020175368
   2   C   :    0.030113463    0.038988323   -0.018767938
   3   C   :   -0.002385689   -0.010553020    0.007647763
   4   H   :    0.001608897   -0.001216927    0.001710894
   5   C   :   -0.008230420   -0.012850512    0.008226579
   6   H   :   -0.000650996    0.000535652   -0.002634377
   7   C   :   -0.025355024   -0.037669076    0.022687033
   8   C   :    0.026054827    0.041570211   -0.026617241
   9   H   :   -0.002487804   -0.000716581   -0.000724315
  10   H   :   -0.002389292   -0.002606244    0.000128365
  11   N   :    0.023156031    0.010144464   -0.002263091
  12   H   :   -0.003445324    0.003515839   -0.005975078
  13   H   :   -0.009105568    0.002117644    0.001572261
  14   N   :    0.001826232    0.015482857   -0.011644306
  15   O   :   -0.020538533    0.000501199   -0.015362771
  16   O   :    0.017943171   -0.011674719    0.020053640
  17   O   :    0.000469815   -0.013305628    0.009088467   (inactive)
  18   O   :   -0.004266136    0.011839086    0.032383310   (inactive)
  19   H   :    0.014384541   -0.008860922   -0.007889096   (inactive)
  20   H   :   -0.008789569   -0.004002361   -0.019156803   (inactive)
  21   H   :   -0.007437363    0.007382347    0.001687037   (inactive)
  22   O   :   -0.006763761   -0.007746454    0.013989780   (inactive)
  23   H   :    0.000193825    0.003544838   -0.003323928   (inactive)
  24   H   :   -0.007004538   -0.000107449   -0.001632441   (inactive)
  25   O   :   -0.014586235   -0.015739329   -0.008061794   (inactive)
  26   H   :    0.009523489    0.005740176    0.003545880   (inactive)
  27   O   :   -0.034180998   -0.021982881    0.011487218   (inactive)
  28   H   :   -0.002066751    0.011990057    0.005108243   (inactive)
  29   H   :    0.010667796    0.002089735    0.010471010   (inactive)
  30   O   :    0.009024463   -0.019473972   -0.022958258   (inactive)
  31   O   :   -0.012119359   -0.010686600    0.013253429   (inactive)

Norm of the Cartesian gradient (including inactive atoms)    ...    0.146385036
RMS gradient (including inactive atoms)                      ...    0.015179421
MAX gradient (including inactive atoms)                      ...    0.041570211
Norm of the Cartesian gradient     ...    0.119968971
RMS gradient                       ...    0.017316029
MAX gradient                       ...    0.041570211

------------------------------------------------------------------------------
                              ORCA PROPERTY CALCULATIONS
------------------------------------------------------------------------------

GBWName                                 ... ex_state.gbw
Number of atoms                         ...     16
Number of basis functions               ...    346
Max core memory                         ...   1024 MB

Electric properties:
Dipole moment                           ... YES
Quadrupole moment                       ...  NO
Static polarizability (Dipole/Dipole)   ...  NO
Static polarizability (Dipole/Quad.)    ...  NO
Static polarizability (Quad./Quad.)     ...  NO
Static polarizability (Velocity)        ...  NO

Atomic electric properties:
Dipole moment                           ...  NO
Quadrupole moment                       ...  NO
Static polarizability                   ...  NO

Choice of electric origin               ... Center of mass
Position of electric origin             ...    38.742456    39.254765    37.894859

General magnetic properties:
Magnetizability                         ...  NO

EPR properties:
g-Tensor (aka g-matrix)                 ...  NO
Zero-Field splitting spin-orbit         ...  NO
Zero-field splitting spin-spin          ...  NO
Hyperfine couplings                     ...  NO (   0 nuclei)
Quadrupole couplings                    ...  NO (   0 nuclei)
Contact density                         ...  NO (   0 nuclei)

NMR properties:
Chemical shifts                         ...  NO (   0 nuclei)
Spin-rotation constants                 ...  NO (   0 nuclei)
Spin-spin couplings                     ...  NO (   0 nuclei,    0 pairs)

Choice of magnetic origin               ... GIAO
Position of magnetic origin             ...     0.000000     0.000000     0.000000

Properties with geometric perturbations:
SCF Hessian                             ...  NO
IR spectrum                             ...  NO
VCD spectrum                            ...  NO
X-ray spectroscopy properties:
SCF XES/XAS/RIXS spectra                ...  NO


-------------
DIPOLE MOMENT
-------------

Method             : SCF
Type of density    : Electron Density
Multiplicity       :   1
Irrep              :   0
Energy             :  -492.1354697239245866 Eh
Relativity type    : 
Basis              : AO
                                X                 Y                 Z
Electronic contribution:      3.188366689       4.543804161      -2.718856213
Nuclear contribution   :     -5.058752780      -7.684257217       4.454278469
                        -----------------------------------------
Total Dipole Moment    :     -1.870386091      -3.140453056       1.735422256
                        -----------------------------------------
Magnitude (a.u.)       :      4.046292122
Magnitude (Debye)      :     10.284857222



--------------------
Rotational spectrum 
--------------------
 
Rotational constants in cm-1:             0.132548             0.027905             0.023054 
Rotational constants in MHz :          3973.697969           836.584153           691.132990 

Dipole components along the rotational axes: 
x,y,z [a.u.] :     4.040044     0.094036    -0.204166 
x,y,z [Debye]:    10.268975     0.239021    -0.518949 

 

-------------
DIPOLE MOMENT
-------------

Method             : TDA/CIS
Type of density    : Electron Density
Level              : Relaxed density
State              :   4
Multiplicity       :   1
Irrep              :   0
Energy             :     0.0000000000000000 Eh
Relativity type    : 
Basis              : AO
                                X                 Y                 Z
Electronic contribution:      2.785945345       3.954216910      -2.356239538
Nuclear contribution   :     -5.058752780      -7.684257217       4.454278469
                        -----------------------------------------
Total Dipole Moment    :     -2.272807435      -3.730040307       2.098038931
                        -----------------------------------------
Magnitude (a.u.)       :      4.845680725
Magnitude (Debye)      :     12.316741574



--------------------
Rotational spectrum 
--------------------
 
Rotational constants in cm-1:             0.132548             0.027905             0.023054 
Rotational constants in MHz :          3973.697969           836.584153           691.132990 

Dipole components along the rotational axes: 
x,y,z [a.u.] :     4.840680     0.094342    -0.198842 
x,y,z [Debye]:    12.304031     0.239798    -0.505417 

 

Dipole moment calculation done in   0.5 sec 

Maximum memory used throughout the entire PROP-calculation: 33.1 MB

--------------------------------
SUGGESTED CITATIONS FOR THIS RUN
--------------------------------

Below you find a list of papers that are relevant to this ORCA run
We neither can nor want to force you to cite these papers, but we appreciate if you do
You receive ORCA, which is the product of decades of hard work by many enthusiastic individuals, for free
The only thing we kindly ask in return is that you cite our papers,
We deeply appreciate it, if you show your appreciation for ORCA by not just citing the generic ORCA reference.

Please note that relegating all ORCA citations to the supporting information does *not* help us.
SI sections are not indexed - citations you put there will not count into any citation statistics
But we need these citations in order to attract the funding resources that allow us to do what we are doing

Therefore, if you are a happy ORCA user, please consider citing a few of the papers listed below in the main body of your paper

In addition to the list printed below, the program has created the file ex_state.bibtex that contains the list in bibtex format
You can import this file easily into all common literature databanks and citation aid programs


List of essential papers. We consider these as the minimum necessary citations

  1. Neese,F.
     Software update: the ORCA program system, version 5.0
     WIRES Comput. Molec. Sci., 2022 12(1)e1606
     doi.org/10.1002/wcms.1606

List of papers to cite with high priority. The work reported in these papers was absolutely
necessary for this run to complete.
Our perspective: the developers of density functionals and basis sets usually get cited in chemistry papers
Good! But without the algorithms to do something with them, the functionals or basis sets would not do anything.
Hence, in our opinion, the algorithm design and method developments papers are equally worthy of getting cited

  1. Neese,F.; Olbrich,G.
     Efficient use of the resolution of the identity approximation in time-dependent density functional calculations with hybrid density functionals
     Chem. Phys. Lett., 2002 362 170-178
     doi.org/10.1016/s0009-2614(02)01053-9
  2. Neese,F.
     An improvement of the resolution of the identity approximation for the formation of the Coulomb matrix
     J. Comp. Chem., 2003 24(14)1740-1747
     doi.org/10.1002/jcc.10318
  3. Neese,F.; Wennmohs,F.; Hansen,A.; Becker,U.
     Efficient, approximate and parallel Hartree-Fock and hybrid DFT calculations. A 'chain-of-spheres' algorithm for the Hartree-Fock exchange
     Chem. Phys., 2009 356(1-3)98-109
     doi.org/10.1016/j.chemphys.2008.10.036
  4. Petrenko,T.; Kossmann,S.; Neese,F.
     Efficient time-dependent density functional theory approximations for hybrid density functionals: Analytical gradients and parallelization
     J. Chem. Phys., 2011 134 054116
     doi.org/10.1063/1.3533441
  5. Helmich-Paris,B.; de Souza,B.; Neese,F.; Izsák,R.
     An improved chain of spheres for exchange algorithm
     J. Chem. Phys., 2021 155 104109
     doi.org/doi: 10.1063/5.0058766.
  6. Neese,F.
     The SHARK Integral Generation and Digestion System
     J. Comp. Chem., 2022  1-16
     doi.org/10.1002/jcc.26942
  7. Grimme,S.; Antony,J.; Ehrlich,S.; Krieg,H.
     A consistent and accurate ab initio parametrization of density functional dispersion correction (DFT-D) for the 94 elements H-Pu
     J. Chem. Phys., 2010 132 154104
     doi.org/10.1063/1.3382344
  8. Grimme,S.; Ehrlich,S.; Goerigk,L.
     Effect of the damping function in dispersion corrected density functional theory
     J. Comput. Chem., 2011 32(7)1456-1465
     doi.org/10.1002/jcc.21759

List of suggested additional citations. These are papers that are important in the 'surrounding' of 
of this run, or papers that preceded the highly important papers. If you like your results we are grateful for a citation.

  1. Izsak,R.; Neese,F.
     An overlap fitted chain of spheres exchange method
     J. Chem. Phys., 2011 135 144105
     doi.org/10.1063/1.3646921
  2. Izsak,R.; Hansen,A.; Neese,F.
     The resolution of identity and chain of spheres approximations for the LPNO-CCSD singles Fock term
     Molec. Phys., 2012 110 2413-2417
     doi.org/10.1080/00268976.2012.687466
  3. Neese,F.
     The ORCA program system
     WIRES Comput. Molec. Sci., 2012 2(1)73-78
     doi.org/10.1002/wcms.81
  4. Izsak,R.; Neese,F.; Klopper,W.
     Robust fitting techniques in the chain of spheres approximation to the Fock exchange: The role of the complementary space
     J. Chem. Phys., 2013 139 
     doi.org/10.1063/1.4819264
  5. Neese,F.
     Software update: the ORCA program system, version 4.0
     WIRES Comput. Molec. Sci., 2018 8(1)1-6
     doi.org/10.1002/wcms.1327
  6. Neese,F.; Wennmohs,F.; Becker,U.; Riplinger,C.
     The ORCA quantum chemistry program package
     J. Chem. Phys., 2020 152 Art. No. L224108
     doi.org/10.1063/5.0004608

List of optional additional citations

  1. Neese,F.
     Approximate second-order SCF convergence for spin unrestricted wavefunctions
     Chem. Phys. Lett., 2000 325(1-3)93-98
     doi.org/10.1016/s0009-2614(00)00662-x

Timings for individual modules:

Sum of individual times          ...     2502.260 sec (=  41.704 min)
Startup calculation              ...       25.013 sec (=   0.417 min)   1.0 %
SCF iterations                   ...     1123.287 sec (=  18.721 min)  44.9 %
Property integrals               ...        2.745 sec (=   0.046 min)   0.1 %
Property calculations            ...        1.383 sec (=   0.023 min)   0.1 %
CIS module                       ...     1346.538 sec (=  22.442 min)  53.8 %
MM module                        ...        3.293 sec (=   0.055 min)   0.1 %
                             ****ORCA TERMINATED NORMALLY****
TOTAL RUN TIME: 0 days 0 hours 44 minutes 18 seconds 215 msec
